# vtk DataFile Version 2.0
Unstructured Grid
ASCII
DATASET UNSTRUCTURED_GRID
POINTS        9 double
  0.0000000000000000E+00    0.0000000000000000E+00    0.0000000000000000E+00
  0.3000000000000000E+01    0.0000000000000000E+00    0.0000000000000000E+00
  0.3000000000000000E+01    0.1000000000000000E+01    0.0000000000000000E+00
  0.0000000000000000E+00    0.1000000000000000E+01    0.0000000000000000E+00
  0.1000000000000000E+01    0.0000000000000000E+00    0.0000000000000000E+00
  0.2000000000000000E+01    0.0000000000000000E+00    0.0000000000000000E+00
  0.1000000000000000E+01    0.1000000000000000E+01    0.0000000000000000E+00
  0.2000000000000000E+01    0.1000000000000000E+01    0.0000000000000000E+00
  0.9999000000000000E+03    0.9999000000000000E+03    0.0000000000000000E+00

CELLS                6               24
              3              0              4              6
              3              0              6              3
              3              5              1              2
              3              5              2              7
              3              6              4              5
              3              5              7              6

CELL_TYPES        6
    5
    5
    5
    5
    5
    5

CELL_DATA        6
SCALARS groupId float
LOOKUP_TABLE default
    1
    1
    1
    1
    2
    2
POINT_DATA        9
VECTORS u          float
  0.1864706106272000E+04   -0.3463716390252000E+03    0.0000000000000000E+00
 -0.6230406960083000E+03    0.1372626497318000E+01    0.0000000000000000E+00
  0.1340505654165000E+05    0.9470965621783999E+03    0.0000000000000000E+00
 -0.3629369459642000E+02   -0.2972550656767000E+03    0.0000000000000000E+00
 -0.3762888830163000E+04   -0.1365936696350000E+04    0.0000000000000000E+00
  0.7779047702207000E+04   -0.1507714183818000E+04    0.0000000000000000E+00
  0.5718978786404000E+04   -0.1487501704438000E+04    0.0000000000000000E+00
 -0.2434556591577000E+05    0.4056310100632000E+04    0.0000000000000000E+00
  0.0000000000000000E+00    0.0000000000000000E+00    0.0000000000000000E+00
SCALARS l          float
LOOKUP_TABLE default
  0.5638867150992000E-10
  0.2740703774454000E-08
  0.3079711737234000E-08
  0.0000000000000000E+00
  0.0000000000000000E+00
  0.0000000000000000E+00
  0.0000000000000000E+00
  0.0000000000000000E+00
  0.0000000000000000E+00
