# vtk DataFile Version 2.0
Unstructured Grid
ASCII
DATASET UNSTRUCTURED_GRID
POINTS        9 double
  0.0000000000000000E+00    0.0000000000000000E+00    0.0000000000000000E+00
  0.3000000000000000E+01    0.0000000000000000E+00    0.0000000000000000E+00
  0.3000000000000000E+01    0.1000000000000000E+01    0.0000000000000000E+00
  0.0000000000000000E+00    0.1000000000000000E+01    0.0000000000000000E+00
  0.1000000000000000E+01    0.0000000000000000E+00    0.0000000000000000E+00
  0.2000000000000000E+01    0.0000000000000000E+00    0.0000000000000000E+00
  0.1000000000000000E+01    0.1000000000000000E+01    0.0000000000000000E+00
  0.2000000000000000E+01    0.1000000000000000E+01    0.0000000000000000E+00
  0.9999000000000000E+03    0.9999000000000000E+03    0.0000000000000000E+00

CELLS                6               24
              3              0              4              6
              3              0              6              3
              3              5              1              2
              3              5              2              7
              3              6              4              5
              3              5              7              6

CELL_TYPES        6
    5
    5
    5
    5
    5
    5

CELL_DATA        6
SCALARS groupId float
LOOKUP_TABLE default
    1
    1
    1
    1
    2
    2
POINT_DATA        9
VECTORS u          float
  0.1142997525722000E+03    0.7389589773011000E+03    0.0000000000000000E+00
  0.5938148554178000E+02   -0.4089775301407000E+03    0.0000000000000000E+00
  0.3388864225720000E+03   -0.5990911987999000E+03    0.0000000000000000E+00
 -0.4762851637741000E+03   -0.1627623369425000E+05    0.0000000000000000E+00
 -0.1046791372046000E+05    0.1014778188997000E+03    0.0000000000000000E+00
 -0.1955403394162000E+04   -0.4312061405510000E+03    0.0000000000000000E+00
 -0.1507109344623000E+04   -0.1031157942403000E+04    0.0000000000000000E+00
 -0.1778297744610000E+04   -0.4412823351692000E+03    0.0000000000000000E+00
  0.0000000000000000E+00    0.0000000000000000E+00    0.0000000000000000E+00
SCALARS l          float
LOOKUP_TABLE default
  0.8925776312254000E+02
 -0.2794532866008000E+00
 -0.2355200112407000E+01
 -0.3684696745386000E+00
  0.1762781969680000E+01
 -0.1734026542834000E-03
  0.1332267629550000E-14
  0.0000000000000000E+00
  0.0000000000000000E+00
