# vtk DataFile Version 2.0
Unstructured Grid
ASCII
DATASET UNSTRUCTURED_GRID
POINTS        9 double
  0.0000000000000000E+00    0.0000000000000000E+00    0.0000000000000000E+00
  0.3000000000000000E+01    0.0000000000000000E+00    0.0000000000000000E+00
  0.3000000000000000E+01    0.1000000000000000E+01    0.0000000000000000E+00
  0.0000000000000000E+00    0.1000000000000000E+01    0.0000000000000000E+00
  0.1000000000000000E+01    0.0000000000000000E+00    0.0000000000000000E+00
  0.2000000000000000E+01    0.0000000000000000E+00    0.0000000000000000E+00
  0.1000000000000000E+01    0.1000000000000000E+01    0.0000000000000000E+00
  0.2000000000000000E+01    0.1000000000000000E+01    0.0000000000000000E+00
  0.9999000000000000E+03    0.9999000000000000E+03    0.0000000000000000E+00

CELLS                6               24
              3              0              4              6
              3              0              6              3
              3              5              1              2
              3              5              2              7
              3              6              4              5
              3              5              7              6

CELL_TYPES        6
    5
    5
    5
    5
    5
    5

CELL_DATA        6
SCALARS groupId float
LOOKUP_TABLE default
    1
    1
    1
    1
    2
    2
POINT_DATA        9
VECTORS u          float
 -0.1111952035347000E+03    0.5915659528116000E+02    0.0000000000000000E+00
 -0.2191471230093000E+01    0.1337106261484000E+02    0.0000000000000000E+00
  0.1282829758810000E+02    0.1219862488902000E+02    0.0000000000000000E+00
  0.1447405950916000E-01    0.6490194695264999E+02    0.0000000000000000E+00
  0.1237175966331000E+05    0.3573973226581000E+02    0.0000000000000000E+00
 -0.6555061190835000E+03   -0.4810511681072000E+02    0.0000000000000000E+00
 -0.1930021995745000E+05   -0.1344494553801000E+04    0.0000000000000000E+00
  0.4939304845907000E+04    0.6514501516164000E+03    0.0000000000000000E+00
  0.0000000000000000E+00    0.0000000000000000E+00    0.0000000000000000E+00
SCALARS l          float
LOOKUP_TABLE default
  0.1439669871659000E+03
 -0.1556143910193000E-01
 -0.2306747497760000E-01
 -0.3620167476352000E+01
 -0.2031710931119000E+02
 -0.1508534312499000E+00
  0.1421085471520000E-13
  0.0000000000000000E+00
  0.0000000000000000E+00
