# vtk DataFile Version 2.0
Unstructured Grid
ASCII
DATASET UNSTRUCTURED_GRID
POINTS        9 double
  0.0000000000000000E+00    0.0000000000000000E+00    0.0000000000000000E+00
  0.3000000000000000E+01    0.0000000000000000E+00    0.0000000000000000E+00
  0.3000000000000000E+01    0.1000000000000000E+01    0.0000000000000000E+00
  0.0000000000000000E+00    0.1000000000000000E+01    0.0000000000000000E+00
  0.1000000000000000E+01    0.0000000000000000E+00    0.0000000000000000E+00
  0.2000000000000000E+01    0.0000000000000000E+00    0.0000000000000000E+00
  0.1000000000000000E+01    0.1000000000000000E+01    0.0000000000000000E+00
  0.2000000000000000E+01    0.1000000000000000E+01    0.0000000000000000E+00
  0.9999000000000000E+03    0.9999000000000000E+03    0.0000000000000000E+00

CELLS                6               24
              3              0              4              6
              3              0              6              3
              3              5              1              2
              3              5              2              7
              3              6              4              5
              3              5              7              6

CELL_TYPES        6
    5
    5
    5
    5
    5
    5

CELL_DATA        6
SCALARS groupId float
LOOKUP_TABLE default
    1
    1
    1
    1
    2
    2
POINT_DATA        9
VECTORS u          float
 -0.2467757108996000E+04   -0.1160361522841000E+04    0.0000000000000000E+00
 -0.1410081326713000E+03   -0.5248636649229001E+03    0.0000000000000000E+00
 -0.1136053407995000E+04    0.1012461552004000E+04    0.0000000000000000E+00
  0.3702241687093000E+04    0.1671112193677000E+05    0.0000000000000000E+00
  0.1010850828617000E+04    0.8301309979796000E+03    0.0000000000000000E+00
  0.9817477080490000E+03    0.7480767092060000E+03    0.0000000000000000E+00
 -0.8275275162743001E+04   -0.7837002636558000E+04    0.0000000000000000E+00
  0.4307836476382000E+04    0.4025402020548000E+04    0.0000000000000000E+00
  0.0000000000000000E+00    0.0000000000000000E+00    0.0000000000000000E+00
SCALARS l          float
LOOKUP_TABLE default
  0.3598178912091000E+02
  0.4925265795000000E-01
 -0.1865783364187000E+00
 -0.7144340538186000E+01
 -0.1738133244246000E+02
  0.1822796821152000E-01
  0.4440892098501000E-15
  0.0000000000000000E+00
  0.0000000000000000E+00
