# vtk DataFile Version 2.0
Unstructured Grid
ASCII
DATASET UNSTRUCTURED_GRID
POINTS        9 double
  0.0000000000000000E+00    0.0000000000000000E+00    0.0000000000000000E+00
  0.3000000000000000E+01    0.0000000000000000E+00    0.0000000000000000E+00
  0.3000000000000000E+01    0.1000000000000000E+01    0.0000000000000000E+00
  0.0000000000000000E+00    0.1000000000000000E+01    0.0000000000000000E+00
  0.1000000000000000E+01    0.0000000000000000E+00    0.0000000000000000E+00
  0.2000000000000000E+01    0.0000000000000000E+00    0.0000000000000000E+00
  0.1000000000000000E+01    0.1000000000000000E+01    0.0000000000000000E+00
  0.2000000000000000E+01    0.1000000000000000E+01    0.0000000000000000E+00
  0.9999000000000000E+03    0.9999000000000000E+03    0.0000000000000000E+00

CELLS                6               24
              3              0              4              6
              3              0              6              3
              3              5              1              2
              3              5              2              7
              3              6              4              5
              3              5              7              6

CELL_TYPES        6
    5
    5
    5
    5
    5
    5

CELL_DATA        6
SCALARS groupId float
LOOKUP_TABLE default
    1
    1
    1
    1
    2
    2
POINT_DATA        9
VECTORS u          float
 -0.1425088796219000E+04    0.2518783128729000E+04    0.0000000000000000E+00
  0.4997445856166000E+04   -0.6345287889659000E+04    0.0000000000000000E+00
  0.5914621351050999E+03    0.2779125702904000E+05    0.0000000000000000E+00
 -0.2837257609273000E+04   -0.1382631583364000E+05    0.0000000000000000E+00
 -0.5235125373169000E+03   -0.4279953367571000E+03    0.0000000000000000E+00
 -0.3321895277549000E+04    0.2471227598073000E+04    0.0000000000000000E+00
  0.2294935481299000E+04   -0.6096732592936000E+04    0.0000000000000000E+00
 -0.2103646143842000E+05    0.5106773409679000E+04    0.0000000000000000E+00
  0.0000000000000000E+00    0.0000000000000000E+00    0.0000000000000000E+00
SCALARS l          float
LOOKUP_TABLE default
  0.2393949075923000E+03
 -0.6085752782162000E+01
  0.9142085315094001E-01
  0.9145294594204000E+01
 -0.2034562862289000E+02
  0.2997862996442000E+00
  0.0000000000000000E+00
  0.0000000000000000E+00
  0.0000000000000000E+00
