# vtk DataFile Version 2.0
Unstructured Grid
ASCII
DATASET UNSTRUCTURED_GRID
POINTS        9 double
  0.0000000000000000E+00    0.0000000000000000E+00    0.0000000000000000E+00
  0.3000000000000000E+01    0.0000000000000000E+00    0.0000000000000000E+00
  0.3000000000000000E+01    0.1000000000000000E+01    0.0000000000000000E+00
  0.0000000000000000E+00    0.1000000000000000E+01    0.0000000000000000E+00
  0.1000000000000000E+01    0.0000000000000000E+00    0.0000000000000000E+00
  0.2000000000000000E+01    0.0000000000000000E+00    0.0000000000000000E+00
  0.1000000000000000E+01    0.1000000000000000E+01    0.0000000000000000E+00
  0.2000000000000000E+01    0.1000000000000000E+01    0.0000000000000000E+00
  0.9999000000000000E+03    0.9999000000000000E+03    0.0000000000000000E+00

CELLS                6               24
              3              0              4              6
              3              0              6              3
              3              5              1              2
              3              5              2              7
              3              6              4              5
              3              5              7              6

CELL_TYPES        6
    5
    5
    5
    5
    5
    5

CELL_DATA        6
SCALARS groupId float
LOOKUP_TABLE default
    1
    1
    1
    1
    2
    2
POINT_DATA        9
VECTORS u          float
  0.1163667663277000E+05    0.7520762055224000E+03    0.0000000000000000E+00
 -0.9324016843227000E+04   -0.3269126711766000E+04    0.0000000000000000E+00
 -0.1361068344614000E+05    0.8985545294035999E+04    0.0000000000000000E+00
 -0.2479065236712000E+03    0.4416803284790000E+02    0.0000000000000000E+00
 -0.9730348312505001E+04   -0.2738780793746000E+03    0.0000000000000000E+00
  0.9150588916268000E+03   -0.2322212802762000E+05    0.0000000000000000E+00
  0.2838388813335000E+05   -0.2047928272636000E+05    0.0000000000000000E+00
 -0.8022668532202000E+04    0.3746262601272000E+05    0.0000000000000000E+00
  0.0000000000000000E+00    0.0000000000000000E+00    0.0000000000000000E+00
SCALARS l          float
LOOKUP_TABLE default
  0.4729372449219000E-10
 -0.1559556554642000E-08
  0.4782813899338000E-10
  0.0000000000000000E+00
  0.0000000000000000E+00
  0.0000000000000000E+00
  0.0000000000000000E+00
  0.0000000000000000E+00
  0.0000000000000000E+00
