# vtk DataFile Version 2.0
Unstructured Grid
ASCII
DATASET UNSTRUCTURED_GRID
POINTS        9 double
  0.0000000000000000E+00    0.0000000000000000E+00    0.0000000000000000E+00
  0.3000000000000000E+01    0.0000000000000000E+00    0.0000000000000000E+00
  0.3000000000000000E+01    0.1000000000000000E+01    0.0000000000000000E+00
  0.0000000000000000E+00    0.1000000000000000E+01    0.0000000000000000E+00
  0.1000000000000000E+01    0.0000000000000000E+00    0.0000000000000000E+00
  0.2000000000000000E+01    0.0000000000000000E+00    0.0000000000000000E+00
  0.1000000000000000E+01    0.1000000000000000E+01    0.0000000000000000E+00
  0.2000000000000000E+01    0.1000000000000000E+01    0.0000000000000000E+00
  0.9999000000000000E+03    0.9999000000000000E+03    0.0000000000000000E+00

CELLS                6               24
              3              0              4              6
              3              0              6              3
              3              5              1              2
              3              5              2              7
              3              6              4              5
              3              5              7              6

CELL_TYPES        6
    5
    5
    5
    5
    5
    5

CELL_DATA        6
SCALARS groupId float
LOOKUP_TABLE default
    1
    1
    1
    1
    2
    2
POINT_DATA        9
VECTORS u          float
  0.4641357274807000E+04    0.1418151157309000E+05    0.0000000000000000E+00
  0.7423071299477000E+04   -0.3910622421153000E+03    0.0000000000000000E+00
 -0.6963385843885000E+03    0.3528573253395000E+03    0.0000000000000000E+00
  0.4499855267973000E+04   -0.1952049507281000E+05    0.0000000000000000E+00
 -0.6788308856295000E+04   -0.1213716238190000E+02    0.0000000000000000E+00
 -0.4588592718797000E+04    0.3002575231174000E+03    0.0000000000000000E+00
 -0.6348932524010000E+04    0.7420988765166000E+04    0.0000000000000000E+00
  0.1857888841233000E+04   -0.2331920709405000E+04    0.0000000000000000E+00
  0.0000000000000000E+00    0.0000000000000000E+00    0.0000000000000000E+00
SCALARS l          float
LOOKUP_TABLE default
  0.3637978807092000E-11
  0.6393880331259001E-07
 -0.3752474268506000E-07
  0.0000000000000000E+00
  0.0000000000000000E+00
  0.0000000000000000E+00
  0.0000000000000000E+00
  0.0000000000000000E+00
  0.0000000000000000E+00
