# vtk DataFile Version 2.0
Unstructured Grid
ASCII
DATASET UNSTRUCTURED_GRID
POINTS        9 double
  0.0000000000000000E+00    0.0000000000000000E+00    0.0000000000000000E+00
  0.3000000000000000E+01    0.0000000000000000E+00    0.0000000000000000E+00
  0.3000000000000000E+01    0.1000000000000000E+01    0.0000000000000000E+00
  0.0000000000000000E+00    0.1000000000000000E+01    0.0000000000000000E+00
  0.1000000000000000E+01    0.0000000000000000E+00    0.0000000000000000E+00
  0.2000000000000000E+01    0.0000000000000000E+00    0.0000000000000000E+00
  0.1000000000000000E+01    0.1000000000000000E+01    0.0000000000000000E+00
  0.2000000000000000E+01    0.1000000000000000E+01    0.0000000000000000E+00
  0.9999000000000000E+03    0.9999000000000000E+03    0.0000000000000000E+00

CELLS                6               24
              3              0              4              6
              3              0              6              3
              3              5              1              2
              3              5              2              7
              3              6              4              5
              3              5              7              6

CELL_TYPES        6
    5
    5
    5
    5
    5
    5

CELL_DATA        6
SCALARS groupId float
LOOKUP_TABLE default
    1
    1
    1
    1
    2
    2
POINT_DATA        9
VECTORS u          float
  0.8947841305771000E+04   -0.2467602409944000E+04    0.0000000000000000E+00
  0.9935282534972001E+04    0.1306959782481000E+05    0.0000000000000000E+00
  0.5386609533984000E+05    0.4243648920213000E+05    0.0000000000000000E+00
 -0.1060796721288000E+05   -0.1604145113987000E+05    0.0000000000000000E+00
 -0.6668423580822000E+04   -0.6916772102012000E+03    0.0000000000000000E+00
 -0.6465453283711000E+05    0.3154680368693000E+05    0.0000000000000000E+00
 -0.1175662249239000E+05   -0.1607861911000000E+05    0.0000000000000000E+00
  0.2093832694263000E+05   -0.5177354084387000E+05    0.0000000000000000E+00
  0.0000000000000000E+00    0.0000000000000000E+00    0.0000000000000000E+00
SCALARS l          float
LOOKUP_TABLE default
  0.1664375304244000E-09
  0.8796048311722000E-10
  0.9538362399477000E-10
  0.0000000000000000E+00
  0.0000000000000000E+00
  0.0000000000000000E+00
  0.0000000000000000E+00
  0.0000000000000000E+00
  0.0000000000000000E+00
