# vtk DataFile Version 2.0
Unstructured Grid
ASCII
DATASET UNSTRUCTURED_GRID
POINTS        9 double
  0.0000000000000000E+00    0.0000000000000000E+00    0.0000000000000000E+00
  0.3000000000000000E+01    0.0000000000000000E+00    0.0000000000000000E+00
  0.3000000000000000E+01    0.1000000000000000E+01    0.0000000000000000E+00
  0.0000000000000000E+00    0.1000000000000000E+01    0.0000000000000000E+00
  0.1000000000000000E+01    0.0000000000000000E+00    0.0000000000000000E+00
  0.2000000000000000E+01    0.0000000000000000E+00    0.0000000000000000E+00
  0.1000000000000000E+01    0.1000000000000000E+01    0.0000000000000000E+00
  0.2000000000000000E+01    0.1000000000000000E+01    0.0000000000000000E+00
  0.9999000000000000E+03    0.9999000000000000E+03    0.0000000000000000E+00

CELLS                6               24
              3              0              4              6
              3              0              6              3
              3              5              1              2
              3              5              2              7
              3              6              4              5
              3              5              7              6

CELL_TYPES        6
    5
    5
    5
    5
    5
    5

CELL_DATA        6
SCALARS groupId float
LOOKUP_TABLE default
    1
    1
    1
    1
    2
    2
POINT_DATA        9
VECTORS u          float
 -0.1143714200441000E+03    0.2074964363009000E+02    0.0000000000000000E+00
  0.1572715715587000E+04    0.7792338796522999E+03    0.0000000000000000E+00
 -0.1465915822336000E+04    0.4557586184337000E+03    0.0000000000000000E+00
  0.2113309097296000E+00    0.4547832442837000E+02    0.0000000000000000E+00
 -0.2296438470727000E+05    0.5450713043782000E+03    0.0000000000000000E+00
 -0.7399381690717000E+04   -0.1327046754629000E+04    0.0000000000000000E+00
 -0.1082486615715000E+05   -0.2174369966455000E+04    0.0000000000000000E+00
 -0.8710239271898001E+04   -0.1699428501691000E+04    0.0000000000000000E+00
  0.0000000000000000E+00    0.0000000000000000E+00    0.0000000000000000E+00
SCALARS l          float
LOOKUP_TABLE default
  0.8009412802558000E+01
  0.2830086325570000E-01
  0.8549692537219999E-01
 -0.4022651453215000E+02
  0.2146415161868000E+02
  0.8408518364690001E-02
 -0.7105427357601000E-14
  0.0000000000000000E+00
  0.0000000000000000E+00
