# vtk DataFile Version 2.0
Unstructured Grid
ASCII
DATASET UNSTRUCTURED_GRID
POINTS        9 double
  0.0000000000000000E+00    0.0000000000000000E+00    0.0000000000000000E+00
  0.3000000000000000E+01    0.0000000000000000E+00    0.0000000000000000E+00
  0.3000000000000000E+01    0.1000000000000000E+01    0.0000000000000000E+00
  0.0000000000000000E+00    0.1000000000000000E+01    0.0000000000000000E+00
  0.1000000000000000E+01    0.0000000000000000E+00    0.0000000000000000E+00
  0.2000000000000000E+01    0.0000000000000000E+00    0.0000000000000000E+00
  0.1000000000000000E+01    0.1000000000000000E+01    0.0000000000000000E+00
  0.2000000000000000E+01    0.1000000000000000E+01    0.0000000000000000E+00
  0.9999000000000000E+03    0.9999000000000000E+03    0.0000000000000000E+00

CELLS                6               24
              3              0              4              6
              3              0              6              3
              3              5              1              2
              3              5              2              7
              3              6              4              5
              3              5              7              6

CELL_TYPES        6
    5
    5
    5
    5
    5
    5

CELL_DATA        6
SCALARS groupId float
LOOKUP_TABLE default
    1
    1
    1
    1
    2
    2
POINT_DATA        9
VECTORS u          float
  0.4171367470842000E+03    0.3056357491997000E+02    0.0000000000000000E+00
 -0.3136330012657000E+03   -0.2509051776170000E+03    0.0000000000000000E+00
 -0.1220866724417000E+03    0.4197484771154000E+02    0.0000000000000000E+00
  0.2909247931166000E+01    0.2359210079389000E+02    0.0000000000000000E+00
 -0.2046224870247000E+05    0.4326887259606000E+03    0.0000000000000000E+00
 -0.1405238478877000E+05   -0.1987733006843000E+03    0.0000000000000000E+00
 -0.9716260817957000E+04   -0.8145962104957000E+02    0.0000000000000000E+00
  0.2295902188852000E+04    0.2743104889349000E+03    0.0000000000000000E+00
  0.0000000000000000E+00    0.0000000000000000E+00    0.0000000000000000E+00
SCALARS l          float
LOOKUP_TABLE default
  0.1197569575015000E+01
 -0.1140417481548000E+01
 -0.3636900177225000E-02
 -0.6168002946002000E+01
  0.1495639436147000E+02
 -0.8996111964931000E-01
  0.1776356839400000E-14
  0.0000000000000000E+00
  0.0000000000000000E+00
