# vtk DataFile Version 2.0
Unstructured Grid
ASCII
DATASET UNSTRUCTURED_GRID
POINTS        9 double
  0.0000000000000000E+00    0.0000000000000000E+00    0.0000000000000000E+00
  0.3000000000000000E+01    0.0000000000000000E+00    0.0000000000000000E+00
  0.3000000000000000E+01    0.1000000000000000E+01    0.0000000000000000E+00
  0.0000000000000000E+00    0.1000000000000000E+01    0.0000000000000000E+00
  0.1000000000000000E+01    0.0000000000000000E+00    0.0000000000000000E+00
  0.2000000000000000E+01    0.0000000000000000E+00    0.0000000000000000E+00
  0.1000000000000000E+01    0.1000000000000000E+01    0.0000000000000000E+00
  0.2000000000000000E+01    0.1000000000000000E+01    0.0000000000000000E+00
  0.9999000000000000E+03    0.9999000000000000E+03    0.0000000000000000E+00

CELLS                6               24
              3              0              4              6
              3              0              6              3
              3              5              1              2
              3              5              2              7
              3              6              4              5
              3              5              7              6

CELL_TYPES        6
    5
    5
    5
    5
    5
    5

CELL_DATA        6
SCALARS groupId float
LOOKUP_TABLE default
    1
    1
    1
    1
    2
    2
POINT_DATA        9
VECTORS u          float
  0.1126899610509000E+05   -0.5062209328750000E+04    0.0000000000000000E+00
  0.1074576793297000E+05   -0.2848938334180000E+04    0.0000000000000000E+00
 -0.1903427559677000E+05    0.2041009059336000E+05    0.0000000000000000E+00
 -0.3028347629487000E+03    0.4696531532159000E+04    0.0000000000000000E+00
 -0.1815508858910000E+05   -0.9307537570127000E+04    0.0000000000000000E+00
  0.9657945833714000E+04    0.9359942412416000E+04    0.0000000000000000E+00
  0.1715121544616000E+05    0.9828393333320000E+04    0.0000000000000000E+00
 -0.1133172636911000E+05   -0.2707627263820000E+05    0.0000000000000000E+00
  0.0000000000000000E+00    0.0000000000000000E+00    0.0000000000000000E+00
SCALARS l          float
LOOKUP_TABLE default
  0.1091393642128000E-10
 -0.1325654877342000E-08
 -0.2398450194572000E-09
  0.0000000000000000E+00
  0.0000000000000000E+00
  0.0000000000000000E+00
  0.0000000000000000E+00
  0.0000000000000000E+00
  0.0000000000000000E+00
