# vtk DataFile Version 2.0
Unstructured Grid
ASCII
DATASET UNSTRUCTURED_GRID
POINTS        9 double
  0.0000000000000000E+00    0.0000000000000000E+00    0.0000000000000000E+00
  0.3000000000000000E+01    0.0000000000000000E+00    0.0000000000000000E+00
  0.3000000000000000E+01    0.1000000000000000E+01    0.0000000000000000E+00
  0.0000000000000000E+00    0.1000000000000000E+01    0.0000000000000000E+00
  0.1000000000000000E+01    0.0000000000000000E+00    0.0000000000000000E+00
  0.2000000000000000E+01    0.0000000000000000E+00    0.0000000000000000E+00
  0.1000000000000000E+01    0.1000000000000000E+01    0.0000000000000000E+00
  0.2000000000000000E+01    0.1000000000000000E+01    0.0000000000000000E+00
  0.9999000000000000E+03    0.9999000000000000E+03    0.0000000000000000E+00

CELLS                6               24
              3              0              4              6
              3              0              6              3
              3              5              1              2
              3              5              2              7
              3              6              4              5
              3              5              7              6

CELL_TYPES        6
    5
    5
    5
    5
    5
    5

CELL_DATA        6
SCALARS groupId float
LOOKUP_TABLE default
    1
    1
    1
    1
    2
    2
POINT_DATA        9
VECTORS u          float
  0.1250642778089000E+02    0.6376017078510000E+02    0.0000000000000000E+00
 -0.7690096672430000E+03   -0.3400033558362000E+02    0.0000000000000000E+00
  0.7564910157916000E+03   -0.5493670427630000E+02    0.0000000000000000E+00
  0.2874118626654000E-02    0.6502943891897000E+02    0.0000000000000000E+00
  0.3439120750766000E+03    0.1126432926398000E+02    0.0000000000000000E+00
  0.6762179737656000E+03   -0.4100414983402000E+02    0.0000000000000000E+00
 -0.7438901082051000E+03    0.2005237593675000E+03    0.0000000000000000E+00
 -0.4492712263848000E+04    0.8432821580884000E+03    0.0000000000000000E+00
  0.0000000000000000E+00    0.0000000000000000E+00    0.0000000000000000E+00
SCALARS l          float
LOOKUP_TABLE default
 -0.1838761345535000E+02
 -0.4191576925012000E-02
 -0.2107603390174000E-02
 -0.3326221700263000E-02
  0.1516347437550000E+00
 -0.4210897337487000E-06
  0.0000000000000000E+00
  0.0000000000000000E+00
  0.0000000000000000E+00
