# vtk DataFile Version 2.0
Unstructured Grid
ASCII
DATASET UNSTRUCTURED_GRID
POINTS        9 double
  0.0000000000000000E+00    0.0000000000000000E+00    0.0000000000000000E+00
  0.3000000000000000E+01    0.0000000000000000E+00    0.0000000000000000E+00
  0.3000000000000000E+01    0.1000000000000000E+01    0.0000000000000000E+00
  0.0000000000000000E+00    0.1000000000000000E+01    0.0000000000000000E+00
  0.1000000000000000E+01    0.0000000000000000E+00    0.0000000000000000E+00
  0.2000000000000000E+01    0.0000000000000000E+00    0.0000000000000000E+00
  0.1000000000000000E+01    0.1000000000000000E+01    0.0000000000000000E+00
  0.2000000000000000E+01    0.1000000000000000E+01    0.0000000000000000E+00
  0.9999000000000000E+03    0.9999000000000000E+03    0.0000000000000000E+00

CELLS                6               24
              3              0              4              6
              3              0              6              3
              3              5              1              2
              3              5              2              7
              3              6              4              5
              3              5              7              6

CELL_TYPES        6
    5
    5
    5
    5
    5
    5

CELL_DATA        6
SCALARS groupId float
LOOKUP_TABLE default
    1
    1
    1
    1
    2
    2
POINT_DATA        9
VECTORS u          float
  0.1090124873127000E+04    0.8163875297913000E+03    0.0000000000000000E+00
 -0.4262799849218000E+03    0.7541688087676000E+03    0.0000000000000000E+00
  0.1955510085009000E+04   -0.2085623158235000E+04    0.0000000000000000E+00
 -0.2628044782732000E+04   -0.1849831287768000E+05    0.0000000000000000E+00
 -0.1251995591223000E+05    0.1373430543710000E+03    0.0000000000000000E+00
 -0.6033130952922000E+04   -0.1738547902394000E+04    0.0000000000000000E+00
 -0.2679387706270000E+04    0.2638182559222000E+03    0.0000000000000000E+00
 -0.4009796875003000E+04    0.1251334977235000E+05    0.0000000000000000E+00
  0.0000000000000000E+00    0.0000000000000000E+00    0.0000000000000000E+00
SCALARS l          float
LOOKUP_TABLE default
  0.2362176267868000E+03
  0.1537765052792000E+01
 -0.2983729591888000E-01
 -0.1760335791985000E+00
  0.4130357456029000E+01
 -0.5890854391538000E+00
  0.6661338147751000E-15
  0.0000000000000000E+00
  0.0000000000000000E+00
