# vtk DataFile Version 2.0
Unstructured Grid
ASCII
DATASET UNSTRUCTURED_GRID
POINTS        9 double
  0.0000000000000000E+00    0.0000000000000000E+00    0.0000000000000000E+00
  0.3000000000000000E+01    0.0000000000000000E+00    0.0000000000000000E+00
  0.3000000000000000E+01    0.1000000000000000E+01    0.0000000000000000E+00
  0.0000000000000000E+00    0.1000000000000000E+01    0.0000000000000000E+00
  0.1000000000000000E+01    0.0000000000000000E+00    0.0000000000000000E+00
  0.2000000000000000E+01    0.0000000000000000E+00    0.0000000000000000E+00
  0.1000000000000000E+01    0.1000000000000000E+01    0.0000000000000000E+00
  0.2000000000000000E+01    0.1000000000000000E+01    0.0000000000000000E+00
  0.9999000000000000E+03    0.9999000000000000E+03    0.0000000000000000E+00

CELLS                6               24
              3              0              4              6
              3              0              6              3
              3              5              1              2
              3              5              2              7
              3              6              4              5
              3              5              7              6

CELL_TYPES        6
    5
    5
    5
    5
    5
    5

CELL_DATA        6
SCALARS groupId float
LOOKUP_TABLE default
    1
    1
    1
    1
    2
    2
POINT_DATA        9
VECTORS u          float
 -0.1457301031231000E+04    0.4044641487248000E+04    0.0000000000000000E+00
  0.8478523246748000E+03    0.9372624448516000E+02    0.0000000000000000E+00
  0.2774237632403000E+04    0.8970327287755000E+03    0.0000000000000000E+00
 -0.2641986517414000E+04    0.2918680896255000E+04    0.0000000000000000E+00
 -0.7624512592208000E+04   -0.2164506189758000E+05    0.0000000000000000E+00
  0.7528699541032000E+04   -0.1801323629196000E+05    0.0000000000000000E+00
  0.2763656985970000E+05    0.2273857033823000E+05    0.0000000000000000E+00
 -0.2706355921696000E+05    0.8965646494543000E+04    0.0000000000000000E+00
  0.0000000000000000E+00    0.0000000000000000E+00    0.0000000000000000E+00
SCALARS l          float
LOOKUP_TABLE default
  0.9094947017729000E-11
 -0.1527621824995000E-09
 -0.4014896161459000E-09
  0.0000000000000000E+00
  0.0000000000000000E+00
  0.0000000000000000E+00
  0.0000000000000000E+00
  0.0000000000000000E+00
  0.0000000000000000E+00
