# vtk DataFile Version 2.0
Unstructured Grid
ASCII
DATASET UNSTRUCTURED_GRID
POINTS        9 double
  0.0000000000000000E+00    0.0000000000000000E+00    0.0000000000000000E+00
  0.3000000000000000E+01    0.0000000000000000E+00    0.0000000000000000E+00
  0.3000000000000000E+01    0.1000000000000000E+01    0.0000000000000000E+00
  0.0000000000000000E+00    0.1000000000000000E+01    0.0000000000000000E+00
  0.1000000000000000E+01    0.0000000000000000E+00    0.0000000000000000E+00
  0.2000000000000000E+01    0.0000000000000000E+00    0.0000000000000000E+00
  0.1000000000000000E+01    0.1000000000000000E+01    0.0000000000000000E+00
  0.2000000000000000E+01    0.1000000000000000E+01    0.0000000000000000E+00
  0.9999000000000000E+03    0.9999000000000000E+03    0.0000000000000000E+00

CELLS                6               24
              3              0              4              6
              3              0              6              3
              3              5              1              2
              3              5              2              7
              3              6              4              5
              3              5              7              6

CELL_TYPES        6
    5
    5
    5
    5
    5
    5

CELL_DATA        6
SCALARS groupId float
LOOKUP_TABLE default
    1
    1
    1
    1
    2
    2
POINT_DATA        9
VECTORS u          float
 -0.6771836081874000E+03   -0.5641856239818001E+00    0.0000000000000000E+00
 -0.5089159951481000E+02    0.1919288634954000E+03    0.0000000000000000E+00
  0.7385923741666001E+03    0.2071206135331000E+03    0.0000000000000000E+00
 -0.7272197880900000E+01   -0.8469679375875000E+00    0.0000000000000000E+00
 -0.6120103657268000E+04   -0.1942740567047000E+03    0.0000000000000000E+00
 -0.1852907507381000E+04   -0.4287559868345000E+00    0.0000000000000000E+00
  0.3052923846961000E+05   -0.1812601717387000E+01    0.0000000000000000E+00
 -0.6962852218676000E+04    0.2076479547711000E+00    0.0000000000000000E+00
  0.0000000000000000E+00    0.0000000000000000E+00    0.0000000000000000E+00
SCALARS l          float
LOOKUP_TABLE default
 -0.8765622053308000E+01
  0.7077967454513000E+00
 -0.1836280283025000E-01
 -0.5350091879118000E+00
 -0.1291558114644000E-03
 -0.3417782025687000E-02
  0.0000000000000000E+00
  0.0000000000000000E+00
  0.0000000000000000E+00
