# vtk DataFile Version 2.0
Unstructured Grid
ASCII
DATASET UNSTRUCTURED_GRID
POINTS        9 double
  0.0000000000000000E+00    0.0000000000000000E+00    0.0000000000000000E+00
  0.3000000000000000E+01    0.0000000000000000E+00    0.0000000000000000E+00
  0.3000000000000000E+01    0.1000000000000000E+01    0.0000000000000000E+00
  0.0000000000000000E+00    0.1000000000000000E+01    0.0000000000000000E+00
  0.1000000000000000E+01    0.0000000000000000E+00    0.0000000000000000E+00
  0.2000000000000000E+01    0.0000000000000000E+00    0.0000000000000000E+00
  0.1000000000000000E+01    0.1000000000000000E+01    0.0000000000000000E+00
  0.2000000000000000E+01    0.1000000000000000E+01    0.0000000000000000E+00
  0.9999000000000000E+03    0.9999000000000000E+03    0.0000000000000000E+00

CELLS                6               24
              3              0              4              6
              3              0              6              3
              3              5              1              2
              3              5              2              7
              3              6              4              5
              3              5              7              6

CELL_TYPES        6
    5
    5
    5
    5
    5
    5

CELL_DATA        6
SCALARS groupId float
LOOKUP_TABLE default
    1
    1
    1
    1
    2
    2
POINT_DATA        9
VECTORS u          float
 -0.4349222632394000E+04    0.1264131399113000E+05    0.0000000000000000E+00
  0.2228878543247000E+05    0.2354662726845000E+05    0.0000000000000000E+00
 -0.2546816742765000E+04   -0.1370930594868000E+05    0.0000000000000000E+00
 -0.2237274310126000E+04   -0.2003345416484000E+05    0.0000000000000000E+00
  0.4326185940570000E+04   -0.9204024865457000E+04    0.0000000000000000E+00
 -0.3880738648708000E+05   -0.8414166850199001E+04    0.0000000000000000E+00
  0.9691977529767000E+04    0.4161289194649000E+05    0.0000000000000000E+00
  0.1163375126956000E+05   -0.2643988137690000E+05    0.0000000000000000E+00
  0.0000000000000000E+00    0.0000000000000000E+00    0.0000000000000000E+00
SCALARS l          float
LOOKUP_TABLE default
  0.9094947017729000E-11
 -0.2718741064745000E-09
 -0.1906216210966000E-09
  0.0000000000000000E+00
  0.0000000000000000E+00
  0.0000000000000000E+00
  0.0000000000000000E+00
  0.0000000000000000E+00
  0.0000000000000000E+00
