# vtk DataFile Version 2.0
Unstructured Grid
ASCII
DATASET UNSTRUCTURED_GRID
POINTS        9 double
  0.0000000000000000E+00    0.0000000000000000E+00    0.0000000000000000E+00
  0.3000000000000000E+01    0.0000000000000000E+00    0.0000000000000000E+00
  0.3000000000000000E+01    0.1000000000000000E+01    0.0000000000000000E+00
  0.0000000000000000E+00    0.1000000000000000E+01    0.0000000000000000E+00
  0.1000000000000000E+01    0.0000000000000000E+00    0.0000000000000000E+00
  0.2000000000000000E+01    0.0000000000000000E+00    0.0000000000000000E+00
  0.1000000000000000E+01    0.1000000000000000E+01    0.0000000000000000E+00
  0.2000000000000000E+01    0.1000000000000000E+01    0.0000000000000000E+00
  0.9999000000000000E+03    0.9999000000000000E+03    0.0000000000000000E+00

CELLS                6               24
              3              0              4              6
              3              0              6              3
              3              5              1              2
              3              5              2              7
              3              6              4              5
              3              5              7              6

CELL_TYPES        6
    5
    5
    5
    5
    5
    5

CELL_DATA        6
SCALARS groupId float
LOOKUP_TABLE default
    1
    1
    1
    1
    2
    2
POINT_DATA        9
VECTORS u          float
 -0.1036462794456000E+03   -0.3979325103670000E+02    0.0000000000000000E+00
  0.2145149503607000E+00    0.2002942870903000E+02    0.0000000000000000E+00
  0.4231880210322000E+02    0.6737897243950000E+01    0.0000000000000000E+00
  0.6442418572161000E+02   -0.1455903647309000E+05    0.0000000000000000E+00
 -0.9214381433934999E+04    0.1210011151819000E+01    0.0000000000000000E+00
 -0.2731046357444000E+03    0.1945727540079000E+02    0.0000000000000000E+00
  0.2004834595009000E+03    0.1000985171455000E+03    0.0000000000000000E+00
 -0.5435452278026000E+04    0.8303198105268000E+03    0.0000000000000000E+00
  0.0000000000000000E+00    0.0000000000000000E+00    0.0000000000000000E+00
SCALARS l          float
LOOKUP_TABLE default
 -0.2705628390657000E+02
 -0.4137025205189000E-02
 -0.3290143068326000E-02
  0.1841666471375000E+00
  0.4950277697089000E+00
 -0.3336462887980000E-03
  0.6245004513517000E-16
  0.0000000000000000E+00
  0.0000000000000000E+00
