# vtk DataFile Version 2.0
Unstructured Grid
ASCII
DATASET UNSTRUCTURED_GRID
POINTS        9 double
  0.0000000000000000E+00    0.0000000000000000E+00    0.0000000000000000E+00
  0.3000000000000000E+01    0.0000000000000000E+00    0.0000000000000000E+00
  0.3000000000000000E+01    0.1000000000000000E+01    0.0000000000000000E+00
  0.0000000000000000E+00    0.1000000000000000E+01    0.0000000000000000E+00
  0.1000000000000000E+01    0.0000000000000000E+00    0.0000000000000000E+00
  0.2000000000000000E+01    0.0000000000000000E+00    0.0000000000000000E+00
  0.1000000000000000E+01    0.1000000000000000E+01    0.0000000000000000E+00
  0.2000000000000000E+01    0.1000000000000000E+01    0.0000000000000000E+00
  0.9999000000000000E+03    0.9999000000000000E+03    0.0000000000000000E+00

CELLS                6               24
              3              0              4              6
              3              0              6              3
              3              5              1              2
              3              5              2              7
              3              6              4              5
              3              5              7              6

CELL_TYPES        6
    5
    5
    5
    5
    5
    5

CELL_DATA        6
SCALARS groupId float
LOOKUP_TABLE default
    1
    1
    1
    1
    2
    2
POINT_DATA        9
VECTORS u          float
  0.1625205166807000E+01    0.1166016212849000E+00    0.0000000000000000E+00
  0.1043717382348000E+00    0.5949572910021000E+01    0.0000000000000000E+00
 -0.1535025889837000E+01    0.4999958608617000E+01    0.0000000000000000E+00
  0.1759538282239000E-03   -0.9082243834233000E+00    0.0000000000000000E+00
 -0.6970221157253000E+04    0.3147372745310000E+01    0.0000000000000000E+00
  0.1129943196553000E+04   -0.8015772710039000E+01    0.0000000000000000E+00
  0.1265233655490000E+04    0.1507109716034000E+02    0.0000000000000000E+00
  0.3501462466108000E+04   -0.3876080782740000E+02    0.0000000000000000E+00
  0.0000000000000000E+00    0.0000000000000000E+00    0.0000000000000000E+00
SCALARS l          float
LOOKUP_TABLE default
  0.2769408542324000E+03
  0.8926028555360001E-03
  0.4552044183329000E-03
 -0.6174965760057000E+01
  0.4823790538410000E+01
 -0.5796216160967000E+00
 -0.1104671909502000E-13
  0.0000000000000000E+00
  0.0000000000000000E+00
