# vtk DataFile Version 2.0
Unstructured Grid
ASCII
DATASET UNSTRUCTURED_GRID
POINTS        9 double
  0.0000000000000000E+00    0.0000000000000000E+00    0.0000000000000000E+00
  0.3000000000000000E+01    0.0000000000000000E+00    0.0000000000000000E+00
  0.3000000000000000E+01    0.1000000000000000E+01    0.0000000000000000E+00
  0.0000000000000000E+00    0.1000000000000000E+01    0.0000000000000000E+00
  0.1000000000000000E+01    0.0000000000000000E+00    0.0000000000000000E+00
  0.2000000000000000E+01    0.0000000000000000E+00    0.0000000000000000E+00
  0.1000000000000000E+01    0.1000000000000000E+01    0.0000000000000000E+00
  0.2000000000000000E+01    0.1000000000000000E+01    0.0000000000000000E+00
  0.9999000000000000E+03    0.9999000000000000E+03    0.0000000000000000E+00

CELLS                6               24
              3              0              4              6
              3              0              6              3
              3              5              1              2
              3              5              2              7
              3              6              4              5
              3              5              7              6

CELL_TYPES        6
    5
    5
    5
    5
    5
    5

CELL_DATA        6
SCALARS groupId float
LOOKUP_TABLE default
    1
    1
    1
    1
    2
    2
POINT_DATA        9
VECTORS u          float
  0.1233549886861000E+02    0.1806932858245000E+03    0.0000000000000000E+00
 -0.6472732438931000E+02   -0.1774499746415000E+03    0.0000000000000000E+00
  0.5315169910045000E+02   -0.3099790469700000E+03    0.0000000000000000E+00
 -0.7566433876445000E+00    0.1824224549101000E+03    0.0000000000000000E+00
 -0.1755555996742000E+04    0.1161996071119000E+03    0.0000000000000000E+00
 -0.4626291252667000E+03   -0.1194466116288000E+03    0.0000000000000000E+00
 -0.1484165116244000E+04    0.2074713819883000E+03    0.0000000000000000E+00
 -0.4171641328447000E+04    0.1123262198635000E+04    0.0000000000000000E+00
  0.0000000000000000E+00    0.0000000000000000E+00    0.0000000000000000E+00
SCALARS l          float
LOOKUP_TABLE default
  0.4355139107545000E+00
  0.2283620160919000E-04
 -0.7046122738047000E-02
  0.2442133736354000E+00
 -0.6520505659580000E-01
  0.1269180282236000E-03
  0.1526556658860000E-15
  0.0000000000000000E+00
  0.0000000000000000E+00
