# vtk DataFile Version 2.0
Unstructured Grid
ASCII
DATASET UNSTRUCTURED_GRID
POINTS        9 double
  0.0000000000000000E+00    0.0000000000000000E+00    0.0000000000000000E+00
  0.3000000000000000E+01    0.0000000000000000E+00    0.0000000000000000E+00
  0.3000000000000000E+01    0.1000000000000000E+01    0.0000000000000000E+00
  0.0000000000000000E+00    0.1000000000000000E+01    0.0000000000000000E+00
  0.1000000000000000E+01    0.0000000000000000E+00    0.0000000000000000E+00
  0.2000000000000000E+01    0.0000000000000000E+00    0.0000000000000000E+00
  0.1000000000000000E+01    0.1000000000000000E+01    0.0000000000000000E+00
  0.2000000000000000E+01    0.1000000000000000E+01    0.0000000000000000E+00
  0.9999000000000000E+03    0.9999000000000000E+03    0.0000000000000000E+00

CELLS                6               24
              3              0              4              6
              3              0              6              3
              3              5              1              2
              3              5              2              7
              3              6              4              5
              3              5              7              6

CELL_TYPES        6
    5
    5
    5
    5
    5
    5

CELL_DATA        6
SCALARS groupId float
LOOKUP_TABLE default
    1
    1
    1
    1
    2
    2
POINT_DATA        9
VECTORS u          float
  0.4419052940359000E+03   -0.2647614160698000E+04    0.0000000000000000E+00
  0.1016929235376000E+05    0.5633256544229000E+04    0.0000000000000000E+00
  0.2432792629972000E+04    0.2089791562471000E+05    0.0000000000000000E+00
  0.1044273860427000E+04    0.8336743663666000E+03    0.0000000000000000E+00
 -0.1079804893720000E+05   -0.3862346049082000E+03    0.0000000000000000E+00
  0.1703497223233000E+05   -0.2015995136210000E+05    0.0000000000000000E+00
  0.5012809522564000E+04   -0.1049009213549000E+05    0.0000000000000000E+00
 -0.2533799695589000E+05    0.6319045727893000E+04    0.0000000000000000E+00
  0.0000000000000000E+00    0.0000000000000000E+00    0.0000000000000000E+00
SCALARS l          float
LOOKUP_TABLE default
  0.2273736754432000E-10
  0.1757806314348000E-08
 -0.4844481864578000E-11
  0.0000000000000000E+00
  0.0000000000000000E+00
  0.0000000000000000E+00
  0.0000000000000000E+00
  0.0000000000000000E+00
  0.0000000000000000E+00
